<?xml version="1.0" encoding="UTF-8"?>

<!-- generated on 2026-05-02T19:00:29.133636+08:00 by Eclipse SUMO sumo 1.26.0
<sumoConfiguration xmlns:xsi="http://www.w3.org/2001/XMLSchema-instance" xsi:noNamespaceSchemaLocation="http://sumo.dlr.de/xsd/sumoConfiguration.xsd">

    <input>
        <net-file value="C:\Users\86151\Desktop\project\training_data\05-02_19-00-28_fixtime\net_data\05-02_19-00-28_fixtime.net.xml"/>
        <route-files value="C:\Users\86151\Desktop\project\training_data\05-02_19-00-28_fixtime\net_data\05-02_19-00-28_fixtime.rou.xml"/>
        <additional-files value="C:\Users\86151\Desktop\project\training_data\05-02_19-00-28_fixtime\net_data\05-02_19-00-28_fixtime_data.add.xml"/>
    </input>

    <output>
        <tripinfo-output value="C:\Users\86151\Desktop\project\training_data\05-02_19-00-28_fixtime\fixtime_results\tripinfo.xml"/>
        <tripinfo-output.write-unfinished value="true"/>
    </output>

    <time>
        <begin value="0"/>
        <end value="3600"/>
    </time>

    <processing>
        <scale value="1"/>
    </processing>

    <report>
        <no-step-log value="true"/>
    </report>

    <emissions>
        <device.emissions.probability value="1"/>
    </emissions>

    <traci_server>
        <remote-port value="3687"/>
    </traci_server>

    <random_number>
        <seed value="1"/>
    </random_number>

</sumoConfiguration>
-->

<tripinfos xmlns:xsi="http://www.w3.org/2001/XMLSchema-instance" xsi:noNamespaceSchemaLocation="http://sumo.dlr.de/xsd/tripinfo_file.xsd">
    <tripinfo id="n_3_d.5" depart="33.00" departLane="n_3_d_to_n_3_4_2" departPos="5.10" departSpeed="0.00" departDelay="0.00" arrival="222.00" arrivalLane="n_3_0_to_n_3_u_1" arrivalPos="286.40" arrivalSpeed="16.88" duration="189.00" routeLength="1794.90" waitingTime="68.00" waitingCount="1" stopTime="0.00" timeLoss="83.29" rerouteNo="1" devices="tripinfo_n_3_d.5 routing_n_3_d.5 emissions_n_3_d.5" vType="DEFAULT_VEHTYPE" speedFactor="1.23" vaporized="">
        <emissions CO_abs="2646.75" CO2_abs="447767.83" HC_abs="17.79" PMx_abs="42.47" NOx_abs="165.58" fuel_abs="145161.05" electricity_abs="0.00"/>
    </tripinfo>
    <tripinfo id="n_2_d.1" depart="21.00" departLane="n_2_d_to_n_2_4_1" departPos="5.10" departSpeed="0.00" departDelay="0.00" arrival="223.00" arrivalLane="n_2_0_to_n_2_u_0" arrivalPos="286.40" arrivalSpeed="16.38" duration="202.00" routeLength="1794.90" waitingTime="77.00" waitingCount="1" stopTime="0.00" timeLoss="92.46" rerouteNo="1" devices="tripinfo_n_2_d.1 routing_n_2_d.1 emissions_n_2_d.1" vType="DEFAULT_VEHTYPE" speedFactor="1.19" vaporized="">
        <emissions CO_abs="2538.74" CO2_abs="458943.18" HC_abs="17.04" PMx_abs="40.95" NOx_abs="169.61" fuel_abs="148784.07" electricity_abs="0.00"/>
    </tripinfo>
    <tripinfo id="n_0_d.7" depart="29.00" departLane="n_0_d_to_n_0_4_0" departPos="5.10" departSpeed="0.00" departDelay="0.00" arrival="223.00" arrivalLane="n_0_0_to_n_0_u_1" arrivalPos="286.40" arrivalSpeed="15.33" duration="194.00" routeLength="1794.90" waitingTime="63.00" waitingCount="1" stopTime="0.00" timeLoss="82.17" rerouteNo="1" devices="tripinfo_n_0_d.7 routing_n_0_d.7 emissions_n_0_d.7" vType="DEFAULT_VEHTYPE" speedFactor="1.16" vaporized="">
        <emissions CO_abs="2333.94" CO2_abs="439868.03" HC_abs="15.65" PMx_abs="41.10" NOx_abs="161.04" fuel_abs="142600.09" electricity_abs="0.00"/>
    </tripinfo>
    <tripinfo id="n_0_u.2" depart="37.00" departLane="n_0_u_to_n_0_0_1" departPos="5.10" departSpeed="0.00" departDelay="0.00" arrival="223.00" arrivalLane="n_0_4_to_n_0_d_1" arrivalPos="286.40" arrivalSpeed="15.91" duration="186.00" routeLength="1794.90" waitingTime="64.00" waitingCount="1" stopTime="0.00" timeLoss="77.96" rerouteNo="1" devices="tripinfo_n_0_u.2 routing_n_0_u.2 emissions_n_0_u.2" vType="DEFAULT_VEHTYPE" speedFactor="1.20" vaporized="">
        <emissions CO_abs="2608.70" CO2_abs="440434.70" HC_abs="17.51" PMx_abs="41.67" NOx_abs="162.44" fuel_abs="142783.71" electricity_abs="0.00"/>
    </tripinfo>
    <tripinfo id="n_3_d.0" depart="8.00" departLane="n_3_d_to_n_3_4_0" departPos="5.10" departSpeed="0.00" departDelay="0.00" arrival="224.00" arrivalLane="n_3_0_to_n_3_u_0" arrivalPos="286.40" arrivalSpeed="15.09" duration="216.00" routeLength="1794.90" waitingTime="78.00" waitingCount="2" stopTime="0.00" timeLoss="98.37" rerouteNo="1" devices="tripinfo_n_3_d.0 routing_n_3_d.0 emissions_n_3_d.0" vType="DEFAULT_VEHTYPE" speedFactor="1.10" vaporized="">
        <emissions CO_abs="2521.74" CO2_abs="491822.57" HC_abs="16.86" PMx_abs="40.23" NOx_abs="178.64" fuel_abs="159442.96" electricity_abs="0.00"/>
    </tripinfo>
    <tripinfo id="n_2_u.2" depart="14.00" departLane="n_2_u_to_n_2_0_2" departPos="5.10" departSpeed="0.00" departDelay="0.00" arrival="224.00" arrivalLane="n_2_4_to_n_2_d_0" arrivalPos="286.40" arrivalSpeed="15.03" duration="210.00" routeLength="1794.90" waitingTime="73.00" waitingCount="1" stopTime="0.00" timeLoss="94.39" rerouteNo="1" devices="tripinfo_n_2_u.2 routing_n_2_u.2 emissions_n_2_u.2" vType="DEFAULT_VEHTYPE" speedFactor="1.12" vaporized="">
        <emissions CO_abs="2466.93" CO2_abs="486185.45" HC_abs="16.52" PMx_abs="42.45" NOx_abs="176.97" fuel_abs="157615.62" electricity_abs="0.00"/>
    </tripinfo>
    <tripinfo id="n_2_u.3" depart="16.00" departLane="n_2_u_to_n_2_0_0" departPos="5.10" departSpeed="0.00" departDelay="0.00" arrival="224.00" arrivalLane="n_2_4_to_n_2_d_1" arrivalPos="286.40" arrivalSpeed="14.68" duration="208.00" routeLength="1794.90" waitingTime="73.00" waitingCount="1" stopTime="0.00" timeLoss="92.73" rerouteNo="1" devices="tripinfo_n_2_u.3 routing_n_2_u.3 emissions_n_2_u.3" vType="DEFAULT_VEHTYPE" speedFactor="1.13" vaporized="">
        <emissions CO_abs="2508.55" CO2_abs="481437.11" HC_abs="16.81" PMx_abs="41.59" NOx_abs="174.62" fuel_abs="156076.16" electricity_abs="0.00"/>
    </tripinfo>
    <tripinfo id="n_3_d.4" depart="27.00" departLane="n_3_d_to_n_3_4_1" departPos="5.10" departSpeed="0.00" departDelay="0.00" arrival="224.00" arrivalLane="n_3_0_to_n_3_u_1" arrivalPos="286.40" arrivalSpeed="15.09" duration="197.00" routeLength="1794.90" waitingTime="62.00" waitingCount="1" stopTime="0.00" timeLoss="78.56" rerouteNo="1" devices="tripinfo_n_3_d.4 routing_n_3_d.4 emissions_n_3_d.4" vType="DEFAULT_VEHTYPE" speedFactor="1.09" vaporized="">
        <emissions CO_abs="2211.10" CO2_abs="434057.97" HC_abs="14.83" PMx_abs="39.95" NOx_abs="158.65" fuel_abs="140716.57" electricity_abs="0.00"/>
    </tripinfo>
    <tripinfo id="n_1_d.4" depart="28.00" departLane="n_1_d_to_n_1_4_1" departPos="5.10" departSpeed="0.00" departDelay="0.00" arrival="224.00" arrivalLane="n_1_0_to_n_1_u_0" arrivalPos="286.40" arrivalSpeed="14.72" duration="196.00" routeLength="1794.90" waitingTime="65.00" waitingCount="1" stopTime="0.00" timeLoss="80.13" rerouteNo="1" devices="tripinfo_n_1_d.4 routing_n_1_d.4 emissions_n_1_d.4" vType="DEFAULT_VEHTYPE" speedFactor="1.12" vaporized="">
        <emissions CO_abs="2250.06" CO2_abs="431922.31" HC_abs="15.10" PMx_abs="40.24" NOx_abs="158.18" fuel_abs="140024.29" electricity_abs="0.00"/>
    </tripinfo>
    <tripinfo id="n_3_u.0" depart="2.00" departLane="n_3_u_to_n_3_0_0" departPos="5.10" departSpeed="0.00" departDelay="0.00" arrival="225.00" arrivalLane="n_3_4_to_n_3_d_0" arrivalPos="286.40" arrivalSpeed="14.17" duration="223.00" routeLength="1794.90" waitingTime="78.00" waitingCount="2" stopTime="0.00" timeLoss="99.10" rerouteNo="1" devices="tripinfo_n_3_u.0 routing_n_3_u.0 emissions_n_3_u.0" vType="DEFAULT_VEHTYPE" speedFactor="1.04" vaporized="">
        <emissions CO_abs="2119.56" CO2_abs="475814.15" HC_abs="14.20" PMx_abs="39.57" NOx_abs="171.84" fuel_abs="154253.52" electricity_abs="0.00"/>
    </tripinfo>
    <tripinfo id="n_4_d.1" depart="10.00" departLane="n_4_d_to_n_4_4_1" departPos="5.10" departSpeed="0.00" departDelay="0.00" arrival="225.00" arrivalLane="n_4_0_to_n_4_u_1" arrivalPos="286.40" arrivalSpeed="14.06" duration="215.00" routeLength="1794.90" waitingTime="67.00" waitingCount="2" stopTime="0.00" timeLoss="88.84" rerouteNo="1" devices="tripinfo_n_4_d.1 routing_n_4_d.1 emissions_n_4_d.1" vType="DEFAULT_VEHTYPE" speedFactor="1.02" vaporized="">
        <emissions CO_abs="2087.10" CO2_abs="462527.00" HC_abs="13.96" PMx_abs="39.14" NOx_abs="166.05" fuel_abs="149945.88" electricity_abs="0.00"/>
    </tripinfo>
    <tripinfo id="n_4_d.2" depart="12.00" departLane="n_4_d_to_n_4_4_2" departPos="5.10" departSpeed="0.00" departDelay="0.00" arrival="225.00" arrivalLane="n_4_0_to_n_4_u_0" arrivalPos="286.40" arrivalSpeed="13.31" duration="213.00" routeLength="1794.90" waitingTime="69.00" waitingCount="2" stopTime="0.00" timeLoss="88.29" rerouteNo="1" devices="tripinfo_n_4_d.2 routing_n_4_d.2 emissions_n_4_d.2" vType="DEFAULT_VEHTYPE" speedFactor="1.04" vaporized="">
        <emissions CO_abs="2123.13" CO2_abs="461098.36" HC_abs="14.22" PMx_abs="39.77" NOx_abs="165.77" fuel_abs="149482.73" electricity_abs="0.00"/>
    </tripinfo>
    <tripinfo id="n_0_d.3" depart="17.00" departLane="n_0_d_to_n_0_4_1" departPos="5.10" departSpeed="0.00" departDelay="0.00" arrival="225.00" arrivalLane="n_0_0_to_n_0_u_0" arrivalPos="286.40" arrivalSpeed="14.47" duration="208.00" routeLength="1794.90" waitingTime="69.00" waitingCount="1" stopTime="0.00" timeLoss="83.92" rerouteNo="1" devices="tripinfo_n_0_d.3 routing_n_0_d.3 emissions_n_0_d.3" vType="DEFAULT_VEHTYPE" speedFactor="1.04" vaporized="">
        <emissions CO_abs="2009.98" CO2_abs="430961.40" HC_abs="13.46" PMx_abs="37.99" NOx_abs="156.70" fuel_abs="139712.83" electricity_abs="0.00"/>
    </tripinfo>
    <tripinfo id="n_0_u.1" depart="19.00" departLane="n_0_u_to_n_0_0_1" departPos="5.10" departSpeed="0.00" departDelay="0.00" arrival="225.00" arrivalLane="n_0_4_to_n_0_d_0" arrivalPos="286.40" arrivalSpeed="13.42" duration="206.00" routeLength="1794.90" waitingTime="65.00" waitingCount="1" stopTime="0.00" timeLoss="80.25" rerouteNo="1" devices="tripinfo_n_0_u.1 routing_n_0_u.1 emissions_n_0_u.1" vType="DEFAULT_VEHTYPE" speedFactor="1.03" vaporized="">
        <emissions CO_abs="2026.56" CO2_abs="431227.81" HC_abs="13.58" PMx_abs="37.82" NOx_abs="156.78" fuel_abs="139799.12" electricity_abs="0.00"/>
    </tripinfo>
    <tripinfo id="n_0_d.5" depart="21.00" departLane="n_0_d_to_n_0_4_2" departPos="5.10" departSpeed="0.00" departDelay="0.00" arrival="225.00" arrivalLane="n_0_0_to_n_0_u_1" arrivalPos="286.40" arrivalSpeed="14.36" duration="204.00" routeLength="1794.90" waitingTime="68.00" waitingCount="1" stopTime="0.00" timeLoss="81.93" rerouteNo="1" devices="tripinfo_n_0_d.5 routing_n_0_d.5 emissions_n_0_d.5" vType="DEFAULT_VEHTYPE" speedFactor="1.06" vaporized="">
        <emissions CO_abs="2096.00" CO2_abs="432938.90" HC_abs="14.06" PMx_abs="38.64" NOx_abs="158.11" fuel_abs="140353.85" electricity_abs="0.00"/>
    </tripinfo>
    <tripinfo id="n_1_d.2" depart="21.00" departLane="n_1_d_to_n_1_4_2" departPos="5.10" departSpeed="0.00" departDelay="0.00" arrival="225.00" arrivalLane="n_1_0_to_n_1_u_0" arrivalPos="286.40" arrivalSpeed="13.32" duration="204.00" routeLength="1794.90" waitingTime="64.00" waitingCount="1" stopTime="0.00" timeLoss="78.24" rerouteNo="1" devices="tripinfo_n_1_d.2 routing_n_1_d.2 emissions_n_1_d.2" vType="DEFAULT_VEHTYPE" speedFactor="1.03" vaporized="">
        <emissions CO_abs="1855.96" CO2_abs="416099.28" HC_abs="12.46" PMx_abs="38.53" NOx_abs="151.00" fuel_abs="134894.80" electricity_abs="0.00"/>
    </tripinfo>
    <tripinfo id="n_1_u.0" depart="13.00" departLane="n_1_u_to_n_1_0_0" departPos="5.10" departSpeed="0.00" departDelay="0.00" arrival="226.00" arrivalLane="n_1_4_to_n_1_d_0" arrivalPos="286.40" arrivalSpeed="12.72" duration="213.00" routeLength="1794.90" waitingTime="65.00" waitingCount="1" stopTime="0.00" timeLoss="84.33" rerouteNo="1" devices="tripinfo_n_1_u.0 routing_n_1_u.0 emissions_n_1_u.0" vType="DEFAULT_VEHTYPE" speedFactor="1.01" vaporized="">
        <emissions CO_abs="1994.66" CO2_abs="456279.49" HC_abs="13.36" PMx_abs="40.14" NOx_abs="163.85" fuel_abs="147920.54" electricity_abs="0.00"/>
    </tripinfo>
    <tripinfo id="n_1_u.1" depart="18.00" departLane="n_1_u_to_n_1_0_1" departPos="5.10" departSpeed="0.00" departDelay="0.00" arrival="226.00" arrivalLane="n_1_4_to_n_1_d_1" arrivalPos="286.40" arrivalSpeed="13.86" duration="208.00" routeLength="1794.90" waitingTime="66.00" waitingCount="1" stopTime="0.00" timeLoss="79.87" rerouteNo="1" devices="tripinfo_n_1_u.1 routing_n_1_u.1 emissions_n_1_u.1" vType="DEFAULT_VEHTYPE" speedFactor="1.01" vaporized="">
        <emissions CO_abs="1872.81" CO2_abs="426035.90" HC_abs="12.55" PMx_abs="38.87" NOx_abs="154.82" fuel_abs="138116.10" electricity_abs="0.00"/>
    </tripinfo>
    <tripinfo id="n_3_d.3" depart="24.00" departLane="n_3_d_to_n_3_4_2" departPos="5.10" departSpeed="0.00" departDelay="0.00" arrival="226.00" arrivalLane="n_3_0_to_n_3_u_1" arrivalPos="286.40" arrivalSpeed="14.80" duration="202.00" routeLength="1794.90" waitingTime="64.00" waitingCount="1" stopTime="0.00" timeLoss="81.44" rerouteNo="1" devices="tripinfo_n_3_d.3 routing_n_3_d.3 emissions_n_3_d.3" vType="DEFAULT_VEHTYPE" speedFactor="1.07" vaporized="">
        <emissions CO_abs="2078.35" CO2_abs="435098.93" HC_abs="13.95" PMx_abs="40.51" NOx_abs="158.07" fuel_abs="141054.13" electricity_abs="0.00"/>
    </tripinfo>
    <tripinfo id="n_2_u.1" depart="5.00" departLane="n_2_u_to_n_2_0_1" departPos="5.10" departSpeed="0.00" departDelay="0.00" arrival="227.00" arrivalLane="n_2_4_to_n_2_d_0" arrivalPos="286.40" arrivalSpeed="14.17" duration="222.00" routeLength="1794.90" waitingTime="78.00" waitingCount="2" stopTime="0.00" timeLoss="99.10" rerouteNo="1" devices="tripinfo_n_2_u.1 routing_n_2_u.1 emissions_n_2_u.1" vType="DEFAULT_VEHTYPE" speedFactor="1.05" vaporized="">
        <emissions CO_abs="2151.93" CO2_abs="477087.69" HC_abs="14.41" PMx_abs="39.57" NOx_abs="172.20" fuel_abs="154666.34" electricity_abs="0.00"/>
    </tripinfo>
    <tripinfo id="n_2_d.0" depart="6.00" departLane="n_2_d_to_n_2_4_0" departPos="5.10" departSpeed="0.00" departDelay="0.00" arrival="227.00" arrivalLane="n_2_0_to_n_2_u_0" arrivalPos="286.40" arrivalSpeed="13.15" duration="221.00" routeLength="1794.90" waitingTime="64.00" waitingCount="2" stopTime="0.00" timeLoss="85.39" rerouteNo="1" devices="tripinfo_n_2_d.0 routing_n_2_d.0 emissions_n_2_d.0" vType="DEFAULT_VEHTYPE" speedFactor="0.96" vaporized="">
        <emissions CO_abs="1779.83" CO2_abs="447621.66" HC_abs="11.92" PMx_abs="38.55" NOx_abs="160.03" fuel_abs="145113.92" electricity_abs="0.00"/>
    </tripinfo>
    <tripinfo id="n_3_d.1" depart="11.00" departLane="n_3_d_to_n_3_4_1" departPos="5.10" departSpeed="0.00" departDelay="0.00" arrival="227.00" arrivalLane="n_3_0_to_n_3_u_0" arrivalPos="286.40" arrivalSpeed="14.53" duration="216.00" routeLength="1794.90" waitingTime="71.00" waitingCount="2" stopTime="0.00" timeLoss="93.23" rerouteNo="1" devices="tripinfo_n_3_d.1 routing_n_3_d.1 emissions_n_3_d.1" vType="DEFAULT_VEHTYPE" speedFactor="1.06" vaporized="">
        <emissions CO_abs="2282.18" CO2_abs="471884.85" HC_abs="15.26" PMx_abs="38.20" NOx_abs="170.35" fuel_abs="152979.42" electricity_abs="0.00"/>
    </tripinfo>
    <tripinfo id="n_0_d.1" depart="10.00" departLane="n_0_d_to_n_0_4_1" departPos="5.10" departSpeed="0.00" departDelay="0.00" arrival="229.00" arrivalLane="n_0_0_to_n_0_u_1" arrivalPos="286.40" arrivalSpeed="12.81" duration="219.00" routeLength="1794.90" waitingTime="66.00" waitingCount="2" stopTime="0.00" timeLoss="84.16" rerouteNo="1" devices="tripinfo_n_0_d.1 routing_n_0_d.1 emissions_n_0_d.1" vType="DEFAULT_VEHTYPE" speedFactor="0.96" vaporized="">
        <emissions CO_abs="2011.82" CO2_abs="459424.14" HC_abs="13.43" PMx_abs="37.36" NOx_abs="164.22" fuel_abs="148939.90" electricity_abs="0.00"/>
    </tripinfo>
    <tripinfo id="n_0_d.2" depart="12.00" departLane="n_0_d_to_n_0_4_2" departPos="5.10" departSpeed="0.00" departDelay="0.00" arrival="229.00" arrivalLane="n_0_0_to_n_0_u_0" arrivalPos="286.40" arrivalSpeed="13.61" duration="217.00" routeLength="1794.90" waitingTime="65.00" waitingCount="2" stopTime="0.00" timeLoss="85.49" rerouteNo="1" devices="tripinfo_n_0_d.2 routing_n_0_d.2 emissions_n_0_d.2" vType="DEFAULT_VEHTYPE" speedFactor="0.99" vaporized="">
        <emissions CO_abs="1951.84" CO2_abs="454779.10" HC_abs="13.05" PMx_abs="38.73" NOx_abs="162.97" fuel_abs="147434.12" electricity_abs="0.00"/>
    </tripinfo>
    <tripinfo id="n_3_u.4" depart="52.00" departLane="n_3_u_to_n_3_0_1" departPos="5.10" departSpeed="0.00" departDelay="0.00" arrival="241.00" arrivalLane="n_3_4_to_n_3_d_0" arrivalPos="286.40" arrivalSpeed="16.26" duration="189.00" routeLength="1794.90" waitingTime="69.00" waitingCount="1" stopTime="0.00" timeLoss="83.39" rerouteNo="1" devices="tripinfo_n_3_u.4 routing_n_3_u.4 emissions_n_3_u.4" vType="DEFAULT_VEHTYPE" speedFactor="1.23" vaporized="">
        <emissions CO_abs="2744.18" CO2_abs="455154.16" HC_abs="18.44" PMx_abs="42.79" NOx_abs="168.90" fuel_abs="147555.53" electricity_abs="0.00"/>
    </tripinfo>
    <tripinfo id="n_4_d.5" depart="28.00" departLane="n_4_d_to_n_4_4_2" departPos="5.10" departSpeed="0.00" departDelay="0.00" arrival="246.00" arrivalLane="n_4_0_to_n_4_u_0" arrivalPos="286.40" arrivalSpeed="14.60" duration="218.00" routeLength="1794.90" waitingTime="81.00" waitingCount="1" stopTime="0.00" timeLoss="95.27" rerouteNo="1" devices="tripinfo_n_4_d.5 routing_n_4_d.5 emissions_n_4_d.5" vType="DEFAULT_VEHTYPE" speedFactor="1.06" vaporized="">
        <emissions CO_abs="2036.99" CO2_abs="458728.65" HC_abs="13.68" PMx_abs="41.11" NOx_abs="167.87" fuel_abs="148714.86" electricity_abs="0.00"/>
    </tripinfo>
    <tripinfo id="n_0_d.8" depart="30.00" departLane="n_0_d_to_n_0_4_2" departPos="5.10" departSpeed="0.00" departDelay="0.00" arrival="246.00" arrivalLane="n_0_0_to_n_0_u_0" arrivalPos="286.40" arrivalSpeed="14.03" duration="216.00" routeLength="1794.90" waitingTime="80.00" waitingCount="1" stopTime="0.00" timeLoss="95.18" rerouteNo="1" devices="tripinfo_n_0_d.8 routing_n_0_d.8 emissions_n_0_d.8" vType="DEFAULT_VEHTYPE" speedFactor="1.08" vaporized="">
        <emissions CO_abs="2108.09" CO2_abs="453331.81" HC_abs="14.13" PMx_abs="39.58" NOx_abs="166.25" fuel_abs="146965.20" electricity_abs="0.00"/>
    </tripinfo>
    <tripinfo id="n_1_u.3" depart="32.00" departLane="n_1_u_to_n_1_0_2" departPos="5.10" departSpeed="0.00" departDelay="0.00" arrival="246.00" arrivalLane="n_1_4_to_n_1_d_0" arrivalPos="286.40" arrivalSpeed="14.23" duration="214.00" routeLength="1794.90" waitingTime="76.00" waitingCount="1" stopTime="0.00" timeLoss="92.38" rerouteNo="1" devices="tripinfo_n_1_u.3 routing_n_1_u.3 emissions_n_1_u.3" vType="DEFAULT_VEHTYPE" speedFactor="1.07" vaporized="">
        <emissions CO_abs="1995.65" CO2_abs="442341.54" HC_abs="13.40" PMx_abs="39.72" NOx_abs="162.26" fuel_abs="143402.29" electricity_abs="0.00"/>
    </tripinfo>
    <tripinfo id="n_2_u.5" depart="33.00" departLane="n_2_u_to_n_2_0_1" departPos="5.10" departSpeed="0.00" departDelay="0.00" arrival="246.00" arrivalLane="n_2_4_to_n_2_d_0" arrivalPos="286.40" arrivalSpeed="14.01" duration="213.00" routeLength="1794.90" waitingTime="75.00" waitingCount="1" stopTime="0.00" timeLoss="90.67" rerouteNo="1" devices="tripinfo_n_2_u.5 routing_n_2_u.5 emissions_n_2_u.5" vType="DEFAULT_VEHTYPE" speedFactor="1.06" vaporized="">
        <emissions CO_abs="1988.65" CO2_abs="451020.96" HC_abs="13.35" PMx_abs="42.07" NOx_abs="165.30" fuel_abs="146216.13" electricity_abs="0.00"/>
    </tripinfo>
    <tripinfo id="n_4_d.3" depart="26.00" departLane="n_4_d_to_n_4_4_0" departPos="5.10" departSpeed="0.00" departDelay="0.00" arrival="247.00" arrivalLane="n_4_0_to_n_4_u_1" arrivalPos="286.40" arrivalSpeed="14.22" duration="221.00" routeLength="1794.90" waitingTime="79.00" waitingCount="1" stopTime="0.00" timeLoss="96.42" rerouteNo="1" devices="tripinfo_n_4_d.3 routing_n_4_d.3 emissions_n_4_d.3" vType="DEFAULT_VEHTYPE" speedFactor="1.04" vaporized="">
        <emissions CO_abs="1987.04" CO2_abs="455516.10" HC_abs="13.33" PMx_abs="39.45" NOx_abs="165.97" fuel_abs="147673.33" electricity_abs="0.00"/>
    </tripinfo>
    <tripinfo id="n_1_u.5" depart="42.00" departLane="n_1_u_to_n_1_0_2" departPos="5.10" departSpeed="0.00" departDelay="0.00" arrival="247.00" arrivalLane="n_1_4_to_n_1_d_1" arrivalPos="286.40" arrivalSpeed="14.52" duration="205.00" routeLength="1794.90" waitingTime="72.00" waitingCount="1" stopTime="0.00" timeLoss="85.96" rerouteNo="1" devices="tripinfo_n_1_u.5 routing_n_1_u.5 emissions_n_1_u.5" vType="DEFAULT_VEHTYPE" speedFactor="1.09" vaporized="">
        <emissions CO_abs="2135.73" CO2_abs="438959.72" HC_abs="14.33" PMx_abs="39.32" NOx_abs="160.34" fuel_abs="142305.78" electricity_abs="0.00"/>
    </tripinfo>
    <tripinfo id="n_2_u.6" depart="42.00" departLane="n_2_u_to_n_2_0_2" departPos="5.10" departSpeed="0.00" departDelay="0.00" arrival="247.00" arrivalLane="n_2_4_to_n_2_d_1" arrivalPos="286.40" arrivalSpeed="14.36" duration="205.00" routeLength="1794.90" waitingTime="66.00" waitingCount="1" stopTime="0.00" timeLoss="80.60" rerouteNo="1" devices="tripinfo_n_2_u.6 routing_n_2_u.6 emissions_n_2_u.6" vType="DEFAULT_VEHTYPE" speedFactor="1.05" vaporized="">
        <emissions CO_abs="2045.06" CO2_abs="432379.12" HC_abs="13.71" PMx_abs="38.92" NOx_abs="157.10" fuel_abs="140172.43" electricity_abs="0.00"/>
    </tripinfo>
    <tripinfo id="n_1_d.3" depart="25.00" departLane="n_1_d_to_n_1_4_0" departPos="5.10" departSpeed="0.00" departDelay="0.00" arrival="248.00" arrivalLane="n_1_0_to_n_1_u_0" arrivalPos="286.40" arrivalSpeed="12.85" duration="223.00" routeLength="1794.90" waitingTime="79.00" waitingCount="1" stopTime="0.00" timeLoss="93.95" rerouteNo="1" devices="tripinfo_n_1_d.3 routing_n_1_d.3 emissions_n_1_d.3" vType="DEFAULT_VEHTYPE" speedFactor="1.01" vaporized="">
        <emissions CO_abs="1852.15" CO2_abs="452625.84" HC_abs="12.42" PMx_abs="40.37" NOx_abs="165.08" fuel_abs="146736.53" electricity_abs="0.00"/>
    </tripinfo>
    <tripinfo id="n_1_u.2" depart="31.00" departLane="n_1_u_to_n_1_0_1" departPos="5.10" departSpeed="0.00" departDelay="0.00" arrival="248.00" arrivalLane="n_1_4_to_n_1_d_0" arrivalPos="286.40" arrivalSpeed="13.63" duration="217.00" routeLength="1794.90" waitingTime="76.00" waitingCount="1" stopTime="0.00" timeLoss="90.76" rerouteNo="1" devices="tripinfo_n_1_u.2 routing_n_1_u.2 emissions_n_1_u.2" vType="DEFAULT_VEHTYPE" speedFactor="1.03" vaporized="">
        <emissions CO_abs="2040.40" CO2_abs="454934.08" HC_abs="13.67" PMx_abs="40.31" NOx_abs="165.82" fuel_abs="147484.63" electricity_abs="0.00"/>
    </tripinfo>
    <tripinfo id="n_4_d.6" depart="31.00" departLane="n_4_d_to_n_4_4_0" departPos="5.10" departSpeed="0.00" departDelay="0.00" arrival="248.00" arrivalLane="n_4_0_to_n_4_u_0" arrivalPos="286.40" arrivalSpeed="13.40" duration="217.00" routeLength="1794.90" waitingTime="78.00" waitingCount="1" stopTime="0.00" timeLoss="93.57" rerouteNo="1" devices="tripinfo_n_4_d.6 routing_n_4_d.6 emissions_n_4_d.6" vType="DEFAULT_VEHTYPE" speedFactor="1.05" vaporized="">
        <emissions CO_abs="2077.59" CO2_abs="453582.23" HC_abs="13.92" PMx_abs="39.05" NOx_abs="165.79" fuel_abs="147046.35" electricity_abs="0.00"/>
    </tripinfo>
    <tripinfo id="n_4_d.8" depart="41.00" departLane="n_4_d_to_n_4_4_1" departPos="5.10" departSpeed="0.00" departDelay="0.00" arrival="248.00" arrivalLane="n_4_0_to_n_4_u_2" arrivalPos="286.40" arrivalSpeed="13.61" duration="207.00" routeLength="1794.90" waitingTime="70.00" waitingCount="1" stopTime="0.00" timeLoss="85.56" rerouteNo="1" devices="tripinfo_n_4_d.8 routing_n_4_d.8 emissions_n_4_d.8" vType="DEFAULT_VEHTYPE" speedFactor="1.07" vaporized="">
        <emissions CO_abs="2089.12" CO2_abs="432380.92" HC_abs="14.00" PMx_abs="37.53" NOx_abs="157.59" fuel_abs="140172.97" electricity_abs="0.00"/>
    </tripinfo>
    <tripinfo id="n_3_u.2" depart="43.00" departLane="n_3_u_to_n_3_0_1" departPos="5.10" departSpeed="0.00" departDelay="0.00" arrival="248.00" arrivalLane="n_3_4_to_n_3_d_1" arrivalPos="286.40" arrivalSpeed="13.93" duration="205.00" routeLength="1794.90" waitingTime="67.00" waitingCount="1" stopTime="0.00" timeLoss="83.12" rerouteNo="1" devices="tripinfo_n_3_u.2 routing_n_3_u.2 emissions_n_3_u.2" vType="DEFAULT_VEHTYPE" speedFactor="1.06" vaporized="">
        <emissions CO_abs="2041.95" CO2_abs="434034.65" HC_abs="13.71" PMx_abs="39.52" NOx_abs="158.11" fuel_abs="140709.18" electricity_abs="0.00"/>
    </tripinfo>
    <tripinfo id="n_0_u.4" depart="44.00" departLane="n_0_u_to_n_0_0_1" departPos="5.10" departSpeed="0.00" departDelay="0.00" arrival="248.00" arrivalLane="n_0_4_to_n_0_d_0" arrivalPos="286.40" arrivalSpeed="13.85" duration="204.00" routeLength="1794.90" waitingTime="62.00" waitingCount="1" stopTime="0.00" timeLoss="77.81" rerouteNo="1" devices="tripinfo_n_0_u.4 routing_n_0_u.4 emissions_n_0_u.4" vType="DEFAULT_VEHTYPE" speedFactor="1.03" vaporized="">
        <emissions CO_abs="1930.43" CO2_abs="426243.18" HC_abs="12.96" PMx_abs="39.50" NOx_abs="155.01" fuel_abs="138183.27" electricity_abs="0.00"/>
    </tripinfo>
    <tripinfo id="n_1_u.4" depart="39.00" departLane="n_1_u_to_n_1_0_1" departPos="5.10" departSpeed="0.00" departDelay="0.00" arrival="249.00" arrivalLane="n_1_4_to_n_1_d_1" arrivalPos="286.40" arrivalSpeed="12.77" duration="210.00" routeLength="1794.90" waitingTime="64.00" waitingCount="1" stopTime="0.00" timeLoss="79.73" rerouteNo="1" devices="tripinfo_n_1_u.4 routing_n_1_u.4 emissions_n_1_u.4" vType="DEFAULT_VEHTYPE" speedFactor="0.99" vaporized="">
        <emissions CO_abs="1837.17" CO2_abs="425846.93" HC_abs="12.30" PMx_abs="38.05" NOx_abs="154.21" fuel_abs="138054.82" electricity_abs="0.00"/>
    </tripinfo>
    <tripinfo id="n_2_d.3" depart="40.00" departLane="n_2_d_to_n_2_4_2" departPos="5.10" departSpeed="0.00" departDelay="0.00" arrival="249.00" arrivalLane="n_2_0_to_n_2_u_1" arrivalPos="286.40" arrivalSpeed="13.04" duration="209.00" routeLength="1794.90" waitingTime="62.00" waitingCount="1" stopTime="0.00" timeLoss="76.32" rerouteNo="1" devices="tripinfo_n_2_d.3 routing_n_2_d.3 emissions_n_2_d.3" vType="DEFAULT_VEHTYPE" speedFactor="0.97" vaporized="">
        <emissions CO_abs="1831.73" CO2_abs="425425.04" HC_abs="12.26" PMx_abs="38.12" NOx_abs="153.84" fuel_abs="137918.04" electricity_abs="0.00"/>
    </tripinfo>
    <tripinfo id="n_0_d.9" depart="41.00" departLane="n_0_d_to_n_0_4_2" departPos="5.10" departSpeed="0.00" departDelay="0.00" arrival="249.00" arrivalLane="n_0_0_to_n_0_u_1" arrivalPos="286.40" arrivalSpeed="12.74" duration="208.00" routeLength="1794.90" waitingTime="63.00" waitingCount="1" stopTime="0.00" timeLoss="79.34" rerouteNo="1" devices="tripinfo_n_0_d.9 routing_n_0_d.9 emissions_n_0_d.9" vType="DEFAULT_VEHTYPE" speedFactor="1.01" vaporized="">
        <emissions CO_abs="1728.59" CO2_abs="416685.15" HC_abs="11.62" PMx_abs="39.43" NOx_abs="150.97" fuel_abs="135084.82" electricity_abs="0.00"/>
    </tripinfo>
    <tripinfo id="n_0_d.4" depart="18.00" departLane="n_0_d_to_n_0_4_0" departPos="5.10" departSpeed="0.00" departDelay="0.00" arrival="250.00" arrivalLane="n_0_0_to_n_0_u_0" arrivalPos="286.40" arrivalSpeed="13.24" duration="232.00" routeLength="1794.90" waitingTime="81.00" waitingCount="1" stopTime="0.00" timeLoss="98.12" rerouteNo="1" devices="tripinfo_n_0_d.4 routing_n_0_d.4 emissions_n_0_d.4" vType="DEFAULT_VEHTYPE" speedFactor="0.97" vaporized="">
        <emissions CO_abs="1858.71" CO2_abs="466553.28" HC_abs="12.44" PMx_abs="38.99" NOx_abs="169.14" fuel_abs="151251.53" electricity_abs="0.00"/>
    </tripinfo>
    <tripinfo id="n_2_d.2" depart="24.00" departLane="n_2_d_to_n_2_4_2" departPos="5.10" departSpeed="0.00" departDelay="0.00" arrival="250.00" arrivalLane="n_2_0_to_n_2_u_0" arrivalPos="286.40" arrivalSpeed="12.46" duration="226.00" routeLength="1794.90" waitingTime="78.00" waitingCount="1" stopTime="0.00" timeLoss="93.28" rerouteNo="1" devices="tripinfo_n_2_d.2 routing_n_2_d.2 emissions_n_2_d.2" vType="DEFAULT_VEHTYPE" speedFactor="0.97" vaporized="">
        <emissions CO_abs="1830.07" CO2_abs="450709.74" HC_abs="12.25" PMx_abs="38.20" NOx_abs="163.98" fuel_abs="146115.28" electricity_abs="0.00"/>
    </tripinfo>
    <tripinfo id="n_3_u.1" depart="29.00" departLane="n_3_u_to_n_3_0_1" departPos="5.10" departSpeed="0.00" departDelay="0.00" arrival="250.00" arrivalLane="n_3_4_to_n_3_d_0" arrivalPos="286.40" arrivalSpeed="12.91" duration="221.00" routeLength="1794.90" waitingTime="72.00" waitingCount="1" stopTime="0.00" timeLoss="87.45" rerouteNo="1" devices="tripinfo_n_3_u.1 routing_n_3_u.1 emissions_n_3_u.1" vType="DEFAULT_VEHTYPE" speedFactor="0.97" vaporized="">
        <emissions CO_abs="1841.67" CO2_abs="438948.90" HC_abs="12.32" PMx_abs="36.68" NOx_abs="159.09" fuel_abs="142302.34" electricity_abs="0.00"/>
    </tripinfo>
    <tripinfo id="n_4_u.2" depart="34.00" departLane="n_4_u_to_n_4_0_1" departPos="5.10" departSpeed="0.00" departDelay="0.00" arrival="250.00" arrivalLane="n_4_4_to_n_4_d_2" arrivalPos="286.40" arrivalSpeed="14.03" duration="216.00" routeLength="1794.90" waitingTime="75.00" waitingCount="1" stopTime="0.00" timeLoss="89.93" rerouteNo="1" devices="tripinfo_n_4_u.2 routing_n_4_u.2 emissions_n_4_u.2" vType="DEFAULT_VEHTYPE" speedFactor="1.03" vaporized="">
        <emissions CO_abs="1950.38" CO2_abs="445953.72" HC_abs="13.08" PMx_abs="39.30" NOx_abs="162.48" fuel_abs="144573.33" electricity_abs="0.00"/>
    </tripinfo>